# //  Questa Sim-64
# //  Version 10.7c win64 Aug 18 2018
# //
# //  Copyright 1991-2018 Mentor Graphics Corporation
# //  All Rights Reserved.
# //
# //  QuestaSim and its associated documentation contain trade
# //  secrets and commercial or financial information that are the property of
# //  Mentor Graphics Corporation and are privileged, confidential,
# //  and exempt from disclosure under the Freedom of Information Act,
# //  5 U.S.C. Section 552. Furthermore, this information
# //  is prohibited from disclosure under the Trade Secrets Act,
# //  18 U.S.C. Section 1905.
# //
pwd
# D:/Scaledge_work/System_verilog/layered_testbench/FIFO/FIFO_2/TEST
cd ../SIM
do run.do
# ** Warning: (vlib-34) Library already exists at "work".
# QuestaSim-64 vlog 10.7c Compiler 2018.08 Aug 18 2018
# Start time: 11:43:23 on Jun 23,2024
# vlog -reportprogress 300 -coveropt 3 "+acc" ../RTL/fifo.sv ../TEST/package_1.sv ../TOP/top.sv "+incdir+../TEST" "+incdir+../ENV" "+incdir+../RTL" 
# -- Compiling module async_fifo
# -- Compiling package pkg_1
# ** Warning: ** while parsing file included at ../TOP/top.sv(4)
# ** at ../TEST/package_1.sv(1): (vlog-2275) 'pkg_1' already exists and will be overwritten.
# -- Compiling package pkg_1
# -- Compiling interface inf
# -- Compiling module top
# -- Importing package pkg_1
# 
# Top level modules:
# 	top
# End time: 11:43:23 on Jun 23,2024, Elapsed time: 0:00:00
# Errors: 0, Warnings: 1
# vsim -voptargs="+acc" "+BACK_2_BACK" work.top 
# Start time: 11:43:23 on Jun 23,2024
# ** Note: (vsim-3813) Design is being optimized due to module recompilation...
# Loading sv_std.std
# Loading work.inf(fast)
# Loading work.pkg_1(fast)
# Loading work.top(fast)
# Loading work.inf(fast)
# Loading work.async_fifo(fast)
# ** Warning: (vsim-WLF-5000) WLF file currently in use: vsim.wlf
#           File in use by: dell6  Hostname: PRABHASH-PC  ProcessID: 16484
#           Attempting to use alternate WLF file "./wlftjqgng0".
# ** Warning: (vsim-WLF-5001) Could not open WLF file: vsim.wlf
#           Using alternate file: ./wlftjqgng0
# COnnect of generator
# calling of env connect phase
# ---------------At Generator Class-----------------
# -------------------transaction class-------------------
# Time	|	Name		|	Value
# -------------------------------------------------------
# 0	|	Functionality		|	WRITE
# 0	|	wr_enbl		|	1
# 0	|	rd_enbl		|	0
# 0	|	wr_data		|	5
# 0	|	rd_data		|	0
# 0	|	empty_flag		|	0
# 0	|	full_flag		|	0
# 0	|	overflow_flag		|	0
# 0	|	underflow_flag		|	0
# 0	|	almost_empty_flag		|	0
# 0	|	almost_full_flag		|	0
# -------------------------------------------------------
# ---------------At Generator Class-----------------
# -------------------transaction class-------------------
# Time	|	Name		|	Value
# -------------------------------------------------------
# 0	|	Functionality		|	READ
# 0	|	wr_enbl		|	0
# 0	|	rd_enbl		|	1
# 0	|	wr_data		|	0
# 0	|	rd_data		|	0
# 0	|	empty_flag		|	0
# 0	|	full_flag		|	0
# 0	|	overflow_flag		|	0
# 0	|	underflow_flag		|	0
# 0	|	almost_empty_flag		|	0
# 0	|	almost_full_flag		|	0
# -------------------------------------------------------
# ---------------At Generator Class-----------------
# -------------------transaction class-------------------
# Time	|	Name		|	Value
# -------------------------------------------------------
# 0	|	Functionality		|	WRITE
# 0	|	wr_enbl		|	1
# 0	|	rd_enbl		|	0
# 0	|	wr_data		|	54
# 0	|	rd_data		|	0
# 0	|	empty_flag		|	0
# 0	|	full_flag		|	0
# 0	|	overflow_flag		|	0
# 0	|	underflow_flag		|	0
# 0	|	almost_empty_flag		|	0
# 0	|	almost_full_flag		|	0
# -------------------------------------------------------
# ---------------At Generator Class-----------------
# -------------------transaction class-------------------
# Time	|	Name		|	Value
# -------------------------------------------------------
# 0	|	Functionality		|	READ
# 0	|	wr_enbl		|	0
# 0	|	rd_enbl		|	1
# 0	|	wr_data		|	0
# 0	|	rd_data		|	0
# 0	|	empty_flag		|	0
# 0	|	full_flag		|	0
# 0	|	overflow_flag		|	0
# 0	|	underflow_flag		|	0
# 0	|	almost_empty_flag		|	0
# 0	|	almost_full_flag		|	0
# -------------------------------------------------------
# ---------------At Generator Class-----------------
# -------------------transaction class-------------------
# Time	|	Name		|	Value
# -------------------------------------------------------
# 0	|	Functionality		|	WRITE
# 0	|	wr_enbl		|	1
# 0	|	rd_enbl		|	0
# 0	|	wr_data		|	160
# 0	|	rd_data		|	0
# 0	|	empty_flag		|	0
# 0	|	full_flag		|	0
# 0	|	overflow_flag		|	0
# 0	|	underflow_flag		|	0
# 0	|	almost_empty_flag		|	0
# 0	|	almost_full_flag		|	0
# -------------------------------------------------------
# ---------------At Generator Class-----------------
# -------------------transaction class-------------------
# Time	|	Name		|	Value
# -------------------------------------------------------
# 0	|	Functionality		|	READ
# 0	|	wr_enbl		|	0
# 0	|	rd_enbl		|	1
# 0	|	wr_data		|	0
# 0	|	rd_data		|	0
# 0	|	empty_flag		|	0
# 0	|	full_flag		|	0
# 0	|	overflow_flag		|	0
# 0	|	underflow_flag		|	0
# 0	|	almost_empty_flag		|	0
# 0	|	almost_full_flag		|	0
# -------------------------------------------------------
# ---------------At Generator Class-----------------
# -------------------transaction class-------------------
# Time	|	Name		|	Value
# -------------------------------------------------------
# 0	|	Functionality		|	WRITE
# 0	|	wr_enbl		|	1
# 0	|	rd_enbl		|	0
# 0	|	wr_data		|	174
# 0	|	rd_data		|	0
# 0	|	empty_flag		|	0
# 0	|	full_flag		|	0
# 0	|	overflow_flag		|	0
# 0	|	underflow_flag		|	0
# 0	|	almost_empty_flag		|	0
# 0	|	almost_full_flag		|	0
# -------------------------------------------------------
# ---------------At Generator Class-----------------
# -------------------transaction class-------------------
# Time	|	Name		|	Value
# -------------------------------------------------------
# 0	|	Functionality		|	READ
# 0	|	wr_enbl		|	0
# 0	|	rd_enbl		|	1
# 0	|	wr_data		|	0
# 0	|	rd_data		|	0
# 0	|	empty_flag		|	0
# 0	|	full_flag		|	0
# 0	|	overflow_flag		|	0
# 0	|	underflow_flag		|	0
# 0	|	almost_empty_flag		|	0
# 0	|	almost_full_flag		|	0
# -------------------------------------------------------
# ---------------At Generator Class-----------------
# -------------------transaction class-------------------
# Time	|	Name		|	Value
# -------------------------------------------------------
# 0	|	Functionality		|	WRITE
# 0	|	wr_enbl		|	1
# 0	|	rd_enbl		|	0
# 0	|	wr_data		|	255
# 0	|	rd_data		|	0
# 0	|	empty_flag		|	0
# 0	|	full_flag		|	0
# 0	|	overflow_flag		|	0
# 0	|	underflow_flag		|	0
# 0	|	almost_empty_flag		|	0
# 0	|	almost_full_flag		|	0
# -------------------------------------------------------
# ---------------At Generator Class-----------------
# -------------------transaction class-------------------
# Time	|	Name		|	Value
# -------------------------------------------------------
# 0	|	Functionality		|	READ
# 0	|	wr_enbl		|	0
# 0	|	rd_enbl		|	1
# 0	|	wr_data		|	0
# 0	|	rd_data		|	0
# 0	|	empty_flag		|	0
# 0	|	full_flag		|	0
# 0	|	overflow_flag		|	0
# 0	|	underflow_flag		|	0
# 0	|	almost_empty_flag		|	0
# 0	|	almost_full_flag		|	0
# -------------------------------------------------------
# ---------------At Generator Class-----------------
# -------------------transaction class-------------------
# Time	|	Name		|	Value
# -------------------------------------------------------
# 0	|	Functionality		|	WRITE
# 0	|	wr_enbl		|	1
# 0	|	rd_enbl		|	0
# 0	|	wr_data		|	18
# 0	|	rd_data		|	0
# 0	|	empty_flag		|	0
# 0	|	full_flag		|	0
# 0	|	overflow_flag		|	0
# 0	|	underflow_flag		|	0
# 0	|	almost_empty_flag		|	0
# 0	|	almost_full_flag		|	0
# -------------------------------------------------------
# ---------------At Generator Class-----------------
# -------------------transaction class-------------------
# Time	|	Name		|	Value
# -------------------------------------------------------
# 0	|	Functionality		|	READ
# 0	|	wr_enbl		|	0
# 0	|	rd_enbl		|	1
# 0	|	wr_data		|	0
# 0	|	rd_data		|	0
# 0	|	empty_flag		|	0
# 0	|	full_flag		|	0
# 0	|	overflow_flag		|	0
# 0	|	underflow_flag		|	0
# 0	|	almost_empty_flag		|	0
# 0	|	almost_full_flag		|	0
# -------------------------------------------------------
# ----- Reset Has Started (Time: 0) -----
# ----- Reset Has Ended (Time: 43) -----
# Write Drive Task Started,43
# Read Drive Task Started,43
# ------ DRIVER ------
# -------------------transaction class-------------------
# Time	|	Name		|	Value
# -------------------------------------------------------
# 43	|	Functionality		|	WRITE
# 43	|	wr_enbl		|	1
# 43	|	rd_enbl		|	0
# 43	|	wr_data		|	5
# 43	|	rd_data		|	0
# 43	|	empty_flag		|	0
# 43	|	full_flag		|	0
# 43	|	overflow_flag		|	0
# 43	|	underflow_flag		|	0
# 43	|	almost_empty_flag		|	0
# 43	|	almost_full_flag		|	0
# -------------------------------------------------------
# ------ DRIVER ------
# -------------------transaction class-------------------
# Time	|	Name		|	Value
# -------------------------------------------------------
# 43	|	Functionality		|	READ
# 43	|	wr_enbl		|	0
# 43	|	rd_enbl		|	1
# 43	|	wr_data		|	0
# 43	|	rd_data		|	0
# 43	|	empty_flag		|	0
# 43	|	full_flag		|	0
# 43	|	overflow_flag		|	0
# 43	|	underflow_flag		|	0
# 43	|	almost_empty_flag		|	0
# 43	|	almost_full_flag		|	0
# -------------------------------------------------------
# ------ DRIVER ------
# -------------------transaction class-------------------
# Time	|	Name		|	Value
# -------------------------------------------------------
# 43	|	Functionality		|	WRITE
# 43	|	wr_enbl		|	1
# 43	|	rd_enbl		|	0
# 43	|	wr_data		|	54
# 43	|	rd_data		|	0
# 43	|	empty_flag		|	0
# 43	|	full_flag		|	0
# 43	|	overflow_flag		|	0
# 43	|	underflow_flag		|	0
# 43	|	almost_empty_flag		|	0
# 43	|	almost_full_flag		|	0
# -------------------------------------------------------
# ------ DRIVER ------
# -------------------transaction class-------------------
# Time	|	Name		|	Value
# -------------------------------------------------------
# 43	|	Functionality		|	READ
# 43	|	wr_enbl		|	0
# 43	|	rd_enbl		|	1
# 43	|	wr_data		|	0
# 43	|	rd_data		|	0
# 43	|	empty_flag		|	0
# 43	|	full_flag		|	0
# 43	|	overflow_flag		|	0
# 43	|	underflow_flag		|	0
# 43	|	almost_empty_flag		|	0
# 43	|	almost_full_flag		|	0
# -------------------------------------------------------
# ------ DRIVER ------
# -------------------transaction class-------------------
# Time	|	Name		|	Value
# -------------------------------------------------------
# 43	|	Functionality		|	WRITE
# 43	|	wr_enbl		|	1
# 43	|	rd_enbl		|	0
# 43	|	wr_data		|	160
# 43	|	rd_data		|	0
# 43	|	empty_flag		|	0
# 43	|	full_flag		|	0
# 43	|	overflow_flag		|	0
# 43	|	underflow_flag		|	0
# 43	|	almost_empty_flag		|	0
# 43	|	almost_full_flag		|	0
# -------------------------------------------------------
# ------ DRIVER ------
# -------------------transaction class-------------------
# Time	|	Name		|	Value
# -------------------------------------------------------
# 43	|	Functionality		|	READ
# 43	|	wr_enbl		|	0
# 43	|	rd_enbl		|	1
# 43	|	wr_data		|	0
# 43	|	rd_data		|	0
# 43	|	empty_flag		|	0
# 43	|	full_flag		|	0
# 43	|	overflow_flag		|	0
# 43	|	underflow_flag		|	0
# 43	|	almost_empty_flag		|	0
# 43	|	almost_full_flag		|	0
# -------------------------------------------------------
# ------ DRIVER ------
# -------------------transaction class-------------------
# Time	|	Name		|	Value
# -------------------------------------------------------
# 43	|	Functionality		|	WRITE
# 43	|	wr_enbl		|	1
# 43	|	rd_enbl		|	0
# 43	|	wr_data		|	174
# 43	|	rd_data		|	0
# 43	|	empty_flag		|	0
# 43	|	full_flag		|	0
# 43	|	overflow_flag		|	0
# 43	|	underflow_flag		|	0
# 43	|	almost_empty_flag		|	0
# 43	|	almost_full_flag		|	0
# -------------------------------------------------------
# ------ DRIVER ------
# -------------------transaction class-------------------
# Time	|	Name		|	Value
# -------------------------------------------------------
# 43	|	Functionality		|	READ
# 43	|	wr_enbl		|	0
# 43	|	rd_enbl		|	1
# 43	|	wr_data		|	0
# 43	|	rd_data		|	0
# 43	|	empty_flag		|	0
# 43	|	full_flag		|	0
# 43	|	overflow_flag		|	0
# 43	|	underflow_flag		|	0
# 43	|	almost_empty_flag		|	0
# 43	|	almost_full_flag		|	0
# -------------------------------------------------------
# ------ DRIVER ------
# -------------------transaction class-------------------
# Time	|	Name		|	Value
# -------------------------------------------------------
# 43	|	Functionality		|	WRITE
# 43	|	wr_enbl		|	1
# 43	|	rd_enbl		|	0
# 43	|	wr_data		|	255
# 43	|	rd_data		|	0
# 43	|	empty_flag		|	0
# 43	|	full_flag		|	0
# 43	|	overflow_flag		|	0
# 43	|	underflow_flag		|	0
# 43	|	almost_empty_flag		|	0
# 43	|	almost_full_flag		|	0
# -------------------------------------------------------
# ------ DRIVER ------
# -------------------transaction class-------------------
# Time	|	Name		|	Value
# -------------------------------------------------------
# 43	|	Functionality		|	READ
# 43	|	wr_enbl		|	0
# 43	|	rd_enbl		|	1
# 43	|	wr_data		|	0
# 43	|	rd_data		|	0
# 43	|	empty_flag		|	0
# 43	|	full_flag		|	0
# 43	|	overflow_flag		|	0
# 43	|	underflow_flag		|	0
# 43	|	almost_empty_flag		|	0
# 43	|	almost_full_flag		|	0
# -------------------------------------------------------
# ------ DRIVER ------
# -------------------transaction class-------------------
# Time	|	Name		|	Value
# -------------------------------------------------------
# 43	|	Functionality		|	WRITE
# 43	|	wr_enbl		|	1
# 43	|	rd_enbl		|	0
# 43	|	wr_data		|	18
# 43	|	rd_data		|	0
# 43	|	empty_flag		|	0
# 43	|	full_flag		|	0
# 43	|	overflow_flag		|	0
# 43	|	underflow_flag		|	0
# 43	|	almost_empty_flag		|	0
# 43	|	almost_full_flag		|	0
# -------------------------------------------------------
# ------ DRIVER ------
# -------------------transaction class-------------------
# Time	|	Name		|	Value
# -------------------------------------------------------
# 43	|	Functionality		|	READ
# 43	|	wr_enbl		|	0
# 43	|	rd_enbl		|	1
# 43	|	wr_data		|	0
# 43	|	rd_data		|	0
# 43	|	empty_flag		|	0
# 43	|	full_flag		|	0
# 43	|	overflow_flag		|	0
# 43	|	underflow_flag		|	0
# 43	|	almost_empty_flag		|	0
# 43	|	almost_full_flag		|	0
# -------------------------------------------------------
# ---------At Monitor(WRITE)---------
# -------------------transaction class-------------------
# Time	|	Name		|	Value
# -------------------------------------------------------
# 55	|	Functionality		|	WRITE
# 55	|	wr_enbl		|	1
# 55	|	rd_enbl		|	0
# 55	|	wr_data		|	5
# 55	|	rd_data		|	0
# 55	|	empty_flag		|	0
# 55	|	full_flag		|	0
# 55	|	overflow_flag		|	0
# 55	|	underflow_flag		|	0
# 55	|	almost_empty_flag		|	0
# 55	|	almost_full_flag		|	0
# -------------------------------------------------------
# -----------At ScoreBOARD(Original Value)------------
# -------------------transaction class-------------------
# Time	|	Name		|	Value
# -------------------------------------------------------
# 55	|	Functionality		|	WRITE
# 55	|	wr_enbl		|	1
# 55	|	rd_enbl		|	0
# 55	|	wr_data		|	5
# 55	|	rd_data		|	0
# 55	|	empty_flag		|	0
# 55	|	full_flag		|	0
# 55	|	overflow_flag		|	0
# 55	|	underflow_flag		|	0
# 55	|	almost_empty_flag		|	0
# 55	|	almost_full_flag		|	0
# -------------------------------------------------------
# ---------At Monitor(WRITE)---------
# -------------------transaction class-------------------
# Time	|	Name		|	Value
# -------------------------------------------------------
# 75	|	Functionality		|	WRITE
# 75	|	wr_enbl		|	1
# 75	|	rd_enbl		|	0
# 75	|	wr_data		|	160
# 75	|	rd_data		|	0
# 75	|	empty_flag		|	0
# 75	|	full_flag		|	0
# 75	|	overflow_flag		|	0
# 75	|	underflow_flag		|	0
# 75	|	almost_empty_flag		|	0
# 75	|	almost_full_flag		|	0
# -------------------------------------------------------
# -----------At ScoreBOARD(Original Value)------------
# -------------------transaction class-------------------
# Time	|	Name		|	Value
# -------------------------------------------------------
# 75	|	Functionality		|	WRITE
# 75	|	wr_enbl		|	1
# 75	|	rd_enbl		|	0
# 75	|	wr_data		|	160
# 75	|	rd_data		|	0
# 75	|	empty_flag		|	0
# 75	|	full_flag		|	0
# 75	|	overflow_flag		|	0
# 75	|	underflow_flag		|	0
# 75	|	almost_empty_flag		|	0
# 75	|	almost_full_flag		|	0
# -------------------------------------------------------
# Welcome to Read Drive task
# ---------At Monitor(WRITE)---------
# -------------------transaction class-------------------
# Time	|	Name		|	Value
# -------------------------------------------------------
# 95	|	Functionality		|	WRITE
# 95	|	wr_enbl		|	1
# 95	|	rd_enbl		|	0
# 95	|	wr_data		|	255
# 95	|	rd_data		|	0
# 95	|	empty_flag		|	0
# 95	|	full_flag		|	0
# 95	|	overflow_flag		|	0
# 95	|	underflow_flag		|	0
# 95	|	almost_empty_flag		|	0
# 95	|	almost_full_flag		|	0
# -------------------------------------------------------
# -----------At ScoreBOARD(Original Value)------------
# -------------------transaction class-------------------
# Time	|	Name		|	Value
# -------------------------------------------------------
# 95	|	Functionality		|	WRITE
# 95	|	wr_enbl		|	1
# 95	|	rd_enbl		|	0
# 95	|	wr_data		|	255
# 95	|	rd_data		|	0
# 95	|	empty_flag		|	0
# 95	|	full_flag		|	0
# 95	|	overflow_flag		|	0
# 95	|	underflow_flag		|	0
# 95	|	almost_empty_flag		|	0
# 95	|	almost_full_flag		|	0
# -------------------------------------------------------
# Welcome to Read Drive task
# ---------At Monitor(READ)---------
# -------------------transaction class-------------------
# Time	|	Name		|	Value
# -------------------------------------------------------
# 110	|	Functionality		|	READ
# 110	|	wr_enbl		|	0
# 110	|	rd_enbl		|	1
# 110	|	wr_data		|	0
# 110	|	rd_data		|	5
# 110	|	empty_flag		|	0
# 110	|	full_flag		|	0
# 110	|	overflow_flag		|	0
# 110	|	underflow_flag		|	0
# 110	|	almost_empty_flag		|	0
# 110	|	almost_full_flag		|	0
# -------------------------------------------------------
# -----------At ScoreBOARD(Original Value)------------
# -------------------transaction class-------------------
# Time	|	Name		|	Value
# -------------------------------------------------------
# 110	|	Functionality		|	READ
# 110	|	wr_enbl		|	0
# 110	|	rd_enbl		|	1
# 110	|	wr_data		|	0
# 110	|	rd_data		|	5
# 110	|	empty_flag		|	0
# 110	|	full_flag		|	0
# 110	|	overflow_flag		|	0
# 110	|	underflow_flag		|	0
# 110	|	almost_empty_flag		|	0
# 110	|	almost_full_flag		|	0
# -------------------------------------------------------
# Welcome to Read Drive task
# ---------At Monitor(READ)---------
# -------------------transaction class-------------------
# Time	|	Name		|	Value
# -------------------------------------------------------
# 130	|	Functionality		|	READ
# 130	|	wr_enbl		|	0
# 130	|	rd_enbl		|	1
# 130	|	wr_data		|	0
# 130	|	rd_data		|	54
# 130	|	empty_flag		|	0
# 130	|	full_flag		|	0
# 130	|	overflow_flag		|	0
# 130	|	underflow_flag		|	0
# 130	|	almost_empty_flag		|	0
# 130	|	almost_full_flag		|	0
# -------------------------------------------------------
# -----------At ScoreBOARD(Original Value)------------
# -------------------transaction class-------------------
# Time	|	Name		|	Value
# -------------------------------------------------------
# 130	|	Functionality		|	READ
# 130	|	wr_enbl		|	0
# 130	|	rd_enbl		|	1
# 130	|	wr_data		|	0
# 130	|	rd_data		|	54
# 130	|	empty_flag		|	0
# 130	|	full_flag		|	0
# 130	|	overflow_flag		|	0
# 130	|	underflow_flag		|	0
# 130	|	almost_empty_flag		|	0
# 130	|	almost_full_flag		|	0
# -------------------------------------------------------
# Welcome to Read Drive task
# ---------At Monitor(READ)---------
# -------------------transaction class-------------------
# Time	|	Name		|	Value
# -------------------------------------------------------
# 150	|	Functionality		|	READ
# 150	|	wr_enbl		|	0
# 150	|	rd_enbl		|	1
# 150	|	wr_data		|	0
# 150	|	rd_data		|	160
# 150	|	empty_flag		|	0
# 150	|	full_flag		|	0
# 150	|	overflow_flag		|	0
# 150	|	underflow_flag		|	0
# 150	|	almost_empty_flag		|	0
# 150	|	almost_full_flag		|	0
# -------------------------------------------------------
# -----------At ScoreBOARD(Original Value)------------
# -------------------transaction class-------------------
# Time	|	Name		|	Value
# -------------------------------------------------------
# 150	|	Functionality		|	READ
# 150	|	wr_enbl		|	0
# 150	|	rd_enbl		|	1
# 150	|	wr_data		|	0
# 150	|	rd_data		|	160
# 150	|	empty_flag		|	0
# 150	|	full_flag		|	0
# 150	|	overflow_flag		|	0
# 150	|	underflow_flag		|	0
# 150	|	almost_empty_flag		|	0
# 150	|	almost_full_flag		|	0
# -------------------------------------------------------
# Welcome to Read Drive task
# ---------At Monitor(READ)---------
# -------------------transaction class-------------------
# Time	|	Name		|	Value
# -------------------------------------------------------
# 170	|	Functionality		|	READ
# 170	|	wr_enbl		|	0
# 170	|	rd_enbl		|	1
# 170	|	wr_data		|	0
# 170	|	rd_data		|	174
# 170	|	empty_flag		|	0
# 170	|	full_flag		|	0
# 170	|	overflow_flag		|	0
# 170	|	underflow_flag		|	0
# 170	|	almost_empty_flag		|	1
# 170	|	almost_full_flag		|	0
# -------------------------------------------------------
# -----------At ScoreBOARD(Original Value)------------
# -------------------transaction class-------------------
# Time	|	Name		|	Value
# -------------------------------------------------------
# 170	|	Functionality		|	READ
# 170	|	wr_enbl		|	0
# 170	|	rd_enbl		|	1
# 170	|	wr_data		|	0
# 170	|	rd_data		|	174
# 170	|	empty_flag		|	0
# 170	|	full_flag		|	0
# 170	|	overflow_flag		|	0
# 170	|	underflow_flag		|	0
# 170	|	almost_empty_flag		|	1
# 170	|	almost_full_flag		|	0
# -------------------------------------------------------
# Welcome to Read Drive task
# ---------At Monitor(READ)---------
# -------------------transaction class-------------------
# Time	|	Name		|	Value
# -------------------------------------------------------
# 190	|	Functionality		|	READ
# 190	|	wr_enbl		|	0
# 190	|	rd_enbl		|	1
# 190	|	wr_data		|	0
# 190	|	rd_data		|	255
# 190	|	empty_flag		|	0
# 190	|	full_flag		|	0
# 190	|	overflow_flag		|	0
# 190	|	underflow_flag		|	0
# 190	|	almost_empty_flag		|	1
# 190	|	almost_full_flag		|	0
# -------------------------------------------------------
# -----------At ScoreBOARD(Original Value)------------
# -------------------transaction class-------------------
# Time	|	Name		|	Value
# -------------------------------------------------------
# 190	|	Functionality		|	READ
# 190	|	wr_enbl		|	0
# 190	|	rd_enbl		|	1
# 190	|	wr_data		|	0
# 190	|	rd_data		|	255
# 190	|	empty_flag		|	0
# 190	|	full_flag		|	0
# 190	|	overflow_flag		|	0
# 190	|	underflow_flag		|	0
# 190	|	almost_empty_flag		|	1
# 190	|	almost_full_flag		|	0
# -------------------------------------------------------
# ---------At Monitor(READ)---------
# -------------------transaction class-------------------
# Time	|	Name		|	Value
# -------------------------------------------------------
# 210	|	Functionality		|	READ
# 210	|	wr_enbl		|	0
# 210	|	rd_enbl		|	1
# 210	|	wr_data		|	0
# 210	|	rd_data		|	18
# 210	|	empty_flag		|	1
# 210	|	full_flag		|	0
# 210	|	overflow_flag		|	0
# 210	|	underflow_flag		|	1
# 210	|	almost_empty_flag		|	0
# 210	|	almost_full_flag		|	0
# -------------------------------------------------------
# -----------At ScoreBOARD(Original Value)------------
# -------------------transaction class-------------------
# Time	|	Name		|	Value
# -------------------------------------------------------
# 210	|	Functionality		|	READ
# 210	|	wr_enbl		|	0
# 210	|	rd_enbl		|	1
# 210	|	wr_data		|	0
# 210	|	rd_data		|	18
# 210	|	empty_flag		|	1
# 210	|	full_flag		|	0
# 210	|	overflow_flag		|	0
# 210	|	underflow_flag		|	1
# 210	|	almost_empty_flag		|	0
# 210	|	almost_full_flag		|	0
# -------------------------------------------------------
# ** Note: $finish    : ../TOP/top.sv(41)
#    Time: 500 ns  Iteration: 0  Instance: /top
# 1
# Break in Module top at ../TOP/top.sv line 41
do run.do
# ** Warning: (vlib-34) Library already exists at "work".
# QuestaSim-64 vlog 10.7c Compiler 2018.08 Aug 18 2018
# Start time: 11:49:13 on Jun 23,2024
# vlog -reportprogress 300 -coveropt 3 "+acc" ../RTL/fifo.sv ../TEST/package_1.sv ../TOP/top.sv "+incdir+../TEST" "+incdir+../ENV" "+incdir+../RTL" 
# -- Compiling module async_fifo
# -- Compiling package pkg_1
# ** Warning: ** while parsing file included at ../TOP/top.sv(4)
# ** at ../TEST/package_1.sv(1): (vlog-2275) 'pkg_1' already exists and will be overwritten.
# -- Compiling package pkg_1
# -- Compiling interface inf
# -- Compiling module top
# -- Importing package pkg_1
# 
# Top level modules:
# 	top
# End time: 11:49:13 on Jun 23,2024, Elapsed time: 0:00:00
# Errors: 0, Warnings: 1
# End time: 11:49:20 on Jun 23,2024, Elapsed time: 0:05:57
# Errors: 0, Warnings: 3
# vsim -voptargs="+acc" "+BACK_2_BACK" work.top 
# Start time: 11:49:20 on Jun 23,2024
# ** Note: (vsim-3813) Design is being optimized due to module recompilation...
# Loading sv_std.std
# Loading work.inf(fast)
# Loading work.pkg_1(fast)
# Loading work.top(fast)
# Loading work.inf(fast)
# Loading work.async_fifo(fast)
# ** Warning: (vsim-WLF-5000) WLF file currently in use: vsim.wlf
#           File in use by: dell6  Hostname: PRABHASH-PC  ProcessID: 16484
#           Attempting to use alternate WLF file "./wlftkts09f".
# ** Warning: (vsim-WLF-5001) Could not open WLF file: vsim.wlf
#           Using alternate file: ./wlftkts09f
# COnnect of generator
# calling of env connect phase
# ---------------At Generator Class-----------------
# -------------------transaction class-------------------
# Time	|	Name		|	Value
# -------------------------------------------------------
# 0	|	Functionality		|	WRITE
# 0	|	wr_enbl		|	1
# 0	|	rd_enbl		|	0
# 0	|	wr_data		|	5
# 0	|	rd_data		|	0
# 0	|	empty_flag		|	0
# 0	|	full_flag		|	0
# 0	|	overflow_flag		|	0
# 0	|	underflow_flag		|	0
# 0	|	almost_empty_flag		|	0
# 0	|	almost_full_flag		|	0
# -------------------------------------------------------
# ----- Reset Has Started (Time: 0) -----
# ----- Reset Has Ended (Time: 43) -----
# Write Drive Task Started,43
# Read Drive Task Started,43
# ------ DRIVER ------
# -------------------transaction class-------------------
# Time	|	Name		|	Value
# -------------------------------------------------------
# 43	|	Functionality		|	WRITE
# 43	|	wr_enbl		|	1
# 43	|	rd_enbl		|	0
# 43	|	wr_data		|	5
# 43	|	rd_data		|	0
# 43	|	empty_flag		|	0
# 43	|	full_flag		|	0
# 43	|	overflow_flag		|	0
# 43	|	underflow_flag		|	0
# 43	|	almost_empty_flag		|	0
# 43	|	almost_full_flag		|	0
# -------------------------------------------------------
# ---------------At Generator Class-----------------
# -------------------transaction class-------------------
# Time	|	Name		|	Value
# -------------------------------------------------------
# 45	|	Functionality		|	READ
# 45	|	wr_enbl		|	0
# 45	|	rd_enbl		|	1
# 45	|	wr_data		|	0
# 45	|	rd_data		|	0
# 45	|	empty_flag		|	0
# 45	|	full_flag		|	0
# 45	|	overflow_flag		|	0
# 45	|	underflow_flag		|	0
# 45	|	almost_empty_flag		|	0
# 45	|	almost_full_flag		|	0
# -------------------------------------------------------
# ------ DRIVER ------
# -------------------transaction class-------------------
# Time	|	Name		|	Value
# -------------------------------------------------------
# 45	|	Functionality		|	READ
# 45	|	wr_enbl		|	0
# 45	|	rd_enbl		|	1
# 45	|	wr_data		|	0
# 45	|	rd_data		|	0
# 45	|	empty_flag		|	0
# 45	|	full_flag		|	0
# 45	|	overflow_flag		|	0
# 45	|	underflow_flag		|	0
# 45	|	almost_empty_flag		|	0
# 45	|	almost_full_flag		|	0
# -------------------------------------------------------
# ---------At Monitor(WRITE)---------
# -------------------transaction class-------------------
# Time	|	Name		|	Value
# -------------------------------------------------------
# 55	|	Functionality		|	WRITE
# 55	|	wr_enbl		|	1
# 55	|	rd_enbl		|	0
# 55	|	wr_data		|	5
# 55	|	rd_data		|	0
# 55	|	empty_flag		|	0
# 55	|	full_flag		|	0
# 55	|	overflow_flag		|	0
# 55	|	underflow_flag		|	0
# 55	|	almost_empty_flag		|	0
# 55	|	almost_full_flag		|	0
# -------------------------------------------------------
# -----------At ScoreBOARD(Original Value)------------
# -------------------transaction class-------------------
# Time	|	Name		|	Value
# -------------------------------------------------------
# 55	|	Functionality		|	WRITE
# 55	|	wr_enbl		|	1
# 55	|	rd_enbl		|	0
# 55	|	wr_data		|	5
# 55	|	rd_data		|	0
# 55	|	empty_flag		|	0
# 55	|	full_flag		|	0
# 55	|	overflow_flag		|	0
# 55	|	underflow_flag		|	0
# 55	|	almost_empty_flag		|	0
# 55	|	almost_full_flag		|	0
# -------------------------------------------------------
# Welcome to Read Drive task
# ---------------At Generator Class-----------------
# -------------------transaction class-------------------
# Time	|	Name		|	Value
# -------------------------------------------------------
# 90	|	Functionality		|	WRITE
# 90	|	wr_enbl		|	1
# 90	|	rd_enbl		|	0
# 90	|	wr_data		|	54
# 90	|	rd_data		|	0
# 90	|	empty_flag		|	0
# 90	|	full_flag		|	0
# 90	|	overflow_flag		|	0
# 90	|	underflow_flag		|	0
# 90	|	almost_empty_flag		|	0
# 90	|	almost_full_flag		|	0
# -------------------------------------------------------
# ------ DRIVER ------
# -------------------transaction class-------------------
# Time	|	Name		|	Value
# -------------------------------------------------------
# 90	|	Functionality		|	WRITE
# 90	|	wr_enbl		|	1
# 90	|	rd_enbl		|	0
# 90	|	wr_data		|	54
# 90	|	rd_data		|	0
# 90	|	empty_flag		|	0
# 90	|	full_flag		|	0
# 90	|	overflow_flag		|	0
# 90	|	underflow_flag		|	0
# 90	|	almost_empty_flag		|	0
# 90	|	almost_full_flag		|	0
# -------------------------------------------------------
# ---------------At Generator Class-----------------
# -------------------transaction class-------------------
# Time	|	Name		|	Value
# -------------------------------------------------------
# 95	|	Functionality		|	READ
# 95	|	wr_enbl		|	0
# 95	|	rd_enbl		|	1
# 95	|	wr_data		|	0
# 95	|	rd_data		|	0
# 95	|	empty_flag		|	0
# 95	|	full_flag		|	0
# 95	|	overflow_flag		|	0
# 95	|	underflow_flag		|	0
# 95	|	almost_empty_flag		|	0